# vtk DataFile Version 1.0 
3D triangulation data 
ASCII

DATASET POLYDATA
POINTS 394 float
387.119995	0.716334898359746	0
289.984437028634	-1.23419628403377	0
1.89586443896219	-4.68703673063807	0
-100	-4.38811863568162	0
-100	-68	0
387.119995	-68	0
139.30070044518	54.9083093852575	0
126.791996633782	48.6128182384506	0
114.295786589458	42.6039225776341	0
289.35815940359	11.8755714960045	0
262.759178853589	10.0251111960776	0
152.054840697275	55.1301048224673	0
168.571503392956	2.75798469979593	0
130.84169290485	2.1274818941871	0
143.511794115782	51.9571981776156	0
149.39014659515	52.0589302746726	0
375.019429310069	0.715844147373242	0
362.907703358328	0.695604803034176	0
350.780727326648	0.6548922844114	0
338.628563645929	0.571606576912985	0
326.445189363337	0.418323339913327	0
314.238282504024	0.148463835560517	0
302.037857877366	-0.320928761529978	0
278.187969962386	-2.02920084542791	0
266.430606562858	-2.87812304399137	0
254.678066075719	-3.8426802947935	0
242.862041323231	-4.83285447273398	0
230.988583267493	-5.81470847744343	0
219.057522390814	-6.74241192497414	0
207.069715089532	-7.57978370603494	0
195.030335336023	-8.30718124467468	0
182.943998055184	-8.89666293340412	0
170.823459294612	-9.3391157945223	0
158.705808524334	-9.65861477980329	0
146.587463490153	-9.87032636232846	0
134.463168661266	-9.98195424667391	0
122.337770440888	-9.97531263481959	0
110.209834482875	-9.83546605722167	0
98.1077458142101	-9.5796371050981	0
86.0367409517203	-9.20795467769279	0
74.0077713307836	-8.72203874834693	0
61.9895539948314	-8.15003677367042	0
50.0188679801187	-7.50201036578476	0
38.0504591458595	-6.81081169811301	0
26.1134318188212	-6.02443729947138	0
14.1003899772807	-5.28202208337075	0
-11.1315312146933	-4.45965220789238	0
-23.9930001620172	-4.36464061849527	0
-36.756958759583	-4.3381285121953	0
-49.4604543094703	-4.34219343133399	0
-62.1235704069712	-4.35701904304217	0
-74.7612315939248	-4.37278129405178	0
-87.3832598553785	-4.3842132508303	0
-100	-14.971778458218	0
-100	-25.5599930778635	0
-100	-36.1577256882312	0
-100	-46.7651584987773	0
-100	-57.3805386728104	0
-88.0534095177025	-68	0
-76.1104500790095	-68	0
-64.1756298272876	-68	0
-52.2529294701113	-68	0
-40.3452156914339	-68	0
-28.452118757052	-68	0
-16.5683991929774	-68	0
-4.68226375899797	-68	0
7.22220607697572	-68	0
19.1606836301926	-68	0
31.1452410596595	-68	0
43.1798487338578	-68	0
55.2636398294904	-68	0
67.3923876547152	-68	0
79.5598203443227	-68	0
91.7585493314	-68	0
103.981187746549	-68	0
116.220029886706	-68	0
128.466454162826	-68	0
140.711708654186	-68	0
152.946978398466	-68	0
165.163324369699	-68	0
177.35157780446	-68	0
189.500815063166	-68	0
201.600104265794	-68	0
213.63957287375	-68	0
225.612143157778	-68	0
237.510889983376	-68	0
249.330835875755	-68	0
261.071117778179	-68	0
272.733898582948	-68	0
284.323395732366	-68	0
295.848254454378	-68	0
307.319838148395	-68	0
318.75185237736	-68	0
330.158696374287	-68	0
341.552340102866	-68	0
352.941866721767	-68	0
364.332529459404	-68	0
375.725944906469	-68	0
387.119995	-56.5256513529183	0
387.119995	-45.0550780427206	0
387.119995	-33.5934330515867	0
387.119995	-22.143667418025	0
387.119995	-10.7074923467717	0
103.442510593722	37.5317752974698	0
92.5383199144095	32.5819830013695	0
81.5627166938512	27.7581245621731	0
70.5066832154147	23.023495391488	0
59.3626764590121	18.3639475859794	0
48.114669651782	13.7644506650412	0
36.770040761998	9.20900166208177	0
25.33240322828	4.62347086598274	0
13.7645445059478	0.0346054585135729	0
276.011289373752	11.0454219782967	0
251.507629490976	14.4348808151871	0
240.263964769492	18.711106019222	0
229.027952968529	22.9949859736574	0
217.841915128052	27.2757313242458	0
206.722982109126	31.6003283139205	0
195.678000704846	36.012257750205	0
184.707925261937	40.5054763967782	0
173.784059171873	45.1597480850811	0
162.921884857263	49.9971966612788	0
155.990996960973	2.4506645488431	0
143.411556153563	2.22892384924444	0
134.103121927311	14.143841072683	0
137.302764036315	26.4641648534625	0
140.434960268991	39.0708318064657	0
153.123990441159	41.8336949034914	0
156.918562865251	31.7973531643796	0
160.772028730411	21.9360867620714	0
164.666367446574	12.2555202786877	0
376.450047793963	-39.624955810507	0
-89.1059268796922	-30.9291758926219	0
-88.9212691089607	-19.0957633148662	0
-89.3668620765897	-42.2964873860734	0
-89.5262311851624	-53.7820755539796	0
376.655092431543	-27.2107271265217	0
376.727001630551	-14.778600476459	0
25.0849751978641	-58.6806025875732	0
324.439347450235	-57.6205233050467	0
290.134476121317	-57.9250766653567	0
255.200120292934	-58.3107376610007	0
-34.3799538846829	-58.3014278330039	0
-22.4865109492413	-58.3159237362415	0
-10.6107446156567	-58.3633320455434	0
1.21554936882572	-58.4701312395295	0
13.0425822381646	-58.6119898284852	0
37.1538948609305	-58.7603434102955	0
73.4922235750187	-59.0340711630283	0
110.107268148296	-59.1941427350532	0
146.82678425988	-59.1963548984925	0
183.417702329719	-59.0370206860436	0
219.614038962798	-58.718176084879	0
-70.8085989923002	-58.0755447246611	0
49.2347435914336	-58.8555252683481	0
61.3452075875601	-58.9496788901893	0
85.6727393301411	-59.1031261703118	0
97.8800730277711	-59.1566106257854	0
122.346605630224	-59.2125797182398	0
134.589397784458	-59.2130154871733	0
171.2498694286	-59.1087348211156	0
195.540778390802	-58.9461192383986	0
207.608499568915	-58.8379475663133	0
231.549878004648	-58.5864761913697	0
243.410697796512	-58.4474839731648	0
266.97792821754	-58.2085326652189	0
278.678597476491	-58.1082581719969	0
301.578285969053	-57.7799268934247	0
313.020820280267	-57.6813731438349	0
335.841736542465	-57.5801549298783	0
347.235901692732	-57.5607085982504	0
358.464071777587	-57.565022776762	0
368.063102925259	-58.4896181333107	0
-58.7919097009487	-57.742569629821	0
-46.4523671167331	-58.1276854506526	0
159.049916077218	-59.1608393305686	0
284.96879973092	-12.7531950314033	0
237.045583545454	-14.6271249685594	0
272.879314470789	-13.1157237391952	0
6.80036607023238	-15.5776393322605	0
19.2655806818716	-15.8210042776749	0
55.8467838026334	-16.7810124597854	0
92.1931171648615	-18.6123751587349	0
128.230967150899	-19.3364138598816	0
164.920468127043	-18.2902558574408	0
201.099281802026	-17.1304980520574	0
31.6546155923221	-15.7983062189974	0
43.8390783137046	-16.1919117975922	0
67.9430999688656	-17.2729412214326	0
80.0752965115523	-17.7857822528055	0
104.294926926129	-18.8966298883772	0
116.089611173967	-19.2114374617721	0
140.526730254627	-18.9406004544176	0
152.745122789854	-18.6317580867548	0
177.216273095492	-18.3051397183791	0
189.364011444046	-17.982270151831	0
212.995836508696	-16.4426459118004	0
225.044989757615	-15.4343062431373	0
248.878097685537	-13.7677063634761	0
260.75554209247	-13.1440404449795	0
-43.4981046609953	-14.9129891578382	0
-30.7252000413255	-15.1775982937146	0
-17.9231213581911	-15.1420212726256	0
-5.65687237319923	-15.2542258844882	0
-56.3724132559449	-14.9465413954693	0
-68.9881545420189	-14.6545054545901	0
345.670177512744	-11.1780288961412	0
308.585848361234	-11.5040231562077	0
333.276882120011	-11.161209923247	0
320.908781069275	-11.5514566938457	0
357.983588019957	-10.5830870210578	0
296.954378779685	-12.1536823696383	0
376.617523947379	-52.3496852965717	0
-78.3406580682367	-37.9757041535932	0
365.99438831194	-32.4644217669615	0
237.245676195605	-49.3213413815962	0
341.385357403314	-46.7975373682411	0
307.023250329867	-47.09711699929	0
7.49839186164235	-48.9453009445292	0
19.4395254379632	-49.443828813182	0
55.5409002563939	-50.0795709187828	0
91.8126079084685	-50.2839862930984	0
128.629373367957	-50.5697369386839	0
165.132763834266	-50.5934915865651	0
202.059578476738	-49.4604411629696	0
-66.6285783816209	-45.9853811510611	0
67.6872725586387	-50.2885320679876	0
103.918959482485	-49.7657021579476	0
140.750606331472	-50.8983183729272	0
213.765500364928	-49.9091296078466	0
249.068126092995	-49.0733804383465	0
318.324264822655	-47.0415482761288	0
365.06983830333	-46.3961097185507	0
295.606091612858	-47.1268027578128	0
177.219811247491	-50.136455572044	0
284.018961535854	-47.7452287351378	0
352.684448915016	-46.8809381304064	0
-40.1042948511132	-48.1239349743766	0
272.467233185173	-48.4447719072902	0
31.3518120208696	-49.7582080700559	0
43.4723206329136	-49.9453255090954	0
79.8387471918397	-50.4317755441996	0
116.385691915804	-49.8003324170092	0
189.772477326533	-49.1525555688981	0
225.373091648193	-49.6605466488791	0
260.850207417942	-48.9056298870854	0
-28.0225134917036	-48.3779665574131	0
-16.1866546958214	-48.2946581401475	0
-4.30894990350899	-48.2796679009583	0
329.770759378015	-46.7319813208229	0
-52.5682559490364	-47.3090051472001	0
152.941547813398	-50.9837844188004	0
37.827239040531	-24.6984298425925	0
74.1888903499793	-25.8922503250996	0
110.196497628212	-27.3502989578989	0
146.773362481293	-27.3686361671611	0
170.875039048812	-26.9731034864409	0
184.046402987539	-28.728869979493	0
218.743225102818	-24.9060697529878	0
254.647086484535	-22.5821039255772	0
25.6647113254679	-25.0023529927248	0
49.957074235671	-25.0151325636143	0
62.0439347745589	-25.4121936050325	0
85.938986470339	-26.7983840958264	0
98.5550221121176	-29.4289681715381	0
121.86857831875	-29.9905651649918	0
134.89042936649	-27.8678830437194	0
195.62416091363	-25.5304028917767	0
206.440091859203	-25.9025064430887	0
230.854902426897	-23.8305025935904	0
242.800850560315	-23.0805577020139	0
266.52640236434	-22.8010967257079	0
158.902974722393	-26.8781318942123	0
279.179671680133	-25.5781674637397	0
12.6151559950035	-27.7735343091168	0
-1.07802629950428	-26.6040027308589	0
292.463153180193	-24.2016235875794	0
-79.4267650339703	-13.5029083358469	0
-50.8433273833243	-25.8959958862832	0
-38.0180439046066	-26.4243634563755	0
-24.3806985881847	-27.3203996514885	0
-63.3338008605965	-25.2367890889776	0
367.835333593809	-8.77849914691077	0
354.340149649597	-24.3319936871099	0
340.597835697173	-23.5251577935694	0
328.027874730152	-23.6274221841387	0
314.864775131315	-24.583524336804	0
-12.6585806300856	-25.5561116588815	0
[...]
POINT_DATA 394
VECTORS Displacements float
0	0.000358167449179873	0
0.00143422001431707	-0.000617098142016886	0
0.000947932219481094	-0.00234351836531903	0
0	-0.00219405931784081	0
0	0	0
0	0	0
0.00112135072259	-0.00654584530737124	0
0.00129159381689114	-0.00650609088077472	0
0.00146807979472899	-0.00632303871118294	0
0.00112108120179525	-0.000712214351997742	0
0.0012250329267943	-0.00163744450196121	0
0.000998420848637488	-0.00643494758876637	0
0.00150975069647801	-0.00527100775010203	0
0.00139484545242503	-0.00558625915290645	0
0.00110489605789105	-0.00652140091119221	0
0.00104407229757512	-0.00647053486266371	0
0.000199961155034515	0.000357922073686621	0
0.000394357679163907	0.000347802401517088	0
0.000581113663323792	0.0003274461422057	0
0.000755276322964362	0.000285803288456492	0
0.000913848181668467	0.000209161669956664	0
0.0010606392520119	7.42319177802585E-05	0
0.0012106859386831	-0.000160464380764989	0
0.00151756898119313	-0.00101460042271396	0
0.00162046978142905	-0.00143906152199568	0
0.00172578253785961	-0.00192134014739675	0
0.00179935266161556	-0.00241642723636699	0
0.00184420613374649	-0.00290735423872171	0
0.0018602581954072	-0.00337120596248707	0
0.00184793754476579	-0.00378989185301747	0
0.00180983766801166	-0.00415359062233734	0
0.00174825152759222	-0.00444833146670206	0
0.001669565147306	-0.00466955789726115	0
0.00159232226216717	-0.00482930738990164	0
0.00151473224507674	-0.00493516318116423	0
0.00143416783063304	-0.00499097712333695	0
0.00135305122044401	-0.0049876563174098	0
0.00127066574143773	-0.00491773302861083	0
0.00120120795710504	-0.00478981855254905	0
0.00114728817586013	-0.00460397733884639	0
0.0011143860153918	-0.00436101937417347	0
0.0010868599974157	-0.00407501838683521	0
0.00108310154005937	-0.00375100518289238	0
0.00108047972292976	-0.00340540584905651	0
0.00109354965941061	-0.00301221864973569	0
0.00106861188864036	-0.00264101104168537	0
0.000684234392653367	-0.00222982610394619	0
0.000503499918991416	-0.00218232030924764	0
0.000371520620208501	-0.00216906425609765	0
0.000269772845264854	-0.00217109671566699	0
0.000188214796514383	-0.00217850952152108	0
0.000119384203037574	-0.00218639064702589	0
5.83700723107682E-05	-0.00219210662541515	0
0	-0.00181922272910902	0
0	-0.00144666353893175	0
0	-0.00107886284411561	0
0	-0.000715913199388648	0
0	-0.000356935386405188	0
3.28083411487386E-05	0	0
6.38011604952606E-05	0	0
9.07205363562215E-05	0	0
0.00011158381494435	0	0
0.000124953804283057	0	0
0.000131013471474005	0	0
0.000132385353511291	0	0
0.000134965705501013	0	0
0.000146712758487859	0	0
0.000175464165096281	0	0
0.000227255029829774	0	0
0.000304070016928877	0	0
0.000405478664745206	0	0
0.000529365677357593	0	0
0.000672591272161339	0	0
0.000831468865700003	0	0
0.00100230137327438	0	0
0.00118123544335282	0	0
0.00136396058141314	0	0
0.00154610082709314	0	0
0.0017232451992332	0	0
0.00189092718484955	0	0
0.00204457090222983	0	0
0.00217869903158309	0	0
0.00228786013289709	0	0
0.00236710393687513	0	0
0.00241289857888887	0	0
0.00242178849168782	0	0
0.00239127093787745	0	0
0.00232092888908941	0	0
0.00221182829147415	0	0
0.0020660863661829	0	0
0.00188802472718885	0	0
0.00168334107419729	0	0
0.00145885768867991	0	0
0.00122178918714333	0	0
0.000978120051433107	0	0
0.000732392860883487	0	0
0.00048723322970177	0	0
0.000243465453234658	0	0
0	7.0508273540848E-05	0
0	0.00013912702863972	0
0	0.000203283474206669	0
0	0.000261499290987486	0
0	0.000312920326614147	0
0.00160942379686077	-0.00609661160126509	0
0.00172531000720477	-0.00580900889931527	0
0.0018054900969256	-0.00545843731891348	0
0.00184545510770733	-0.00506325305425599	0
0.00184143152950606	-0.00463052620701032	0
0.00178540987589102	-0.00416777486747942	0
0.00168107713099901	-0.00368299956895912	0
0.00153023911413999	-0.00321326466700863	0
0.00131429100297391	-0.00274519732074321	0
0.00114936718687593	-0.00112728911085165	0
0.00111181624548787	-0.00216755984240647	0
0.0010025418847461	-0.00276444689038901	0
0.00089709398426474	-0.00335750656317132	0
0.000816625564026212	-0.0039521344878771	0
0.000769717054562818	-0.00452483659303973	0
0.000759776852422908	-0.00505387057489752	0
0.000787297130968396	-0.00554226190161088	0
0.000837922085936644	-0.00595012665745945	0
0.000919384928631371	-0.0062664010693606	0
0.00146949748048656	-0.00542466782557845	0
0.0014297770767814	-0.00553553817537778	0
0.00136930996365541	-0.0060405796636585	0
0.00131288101815749	-0.00634291832326874	0
0.00122272913449539	-0.00650208449676712	0
0.00108599722057969	-0.00641315244825431	0
0.00115827893262549	-0.00626132326781021	0
0.00126001486520525	-0.00602195636896431	0
0.00138218722328707	-0.00569223956065614	0
0.000214739396981612	0.000168572594746489	0
4.35407601539046E-05	-0.00125811554631093	0
4.98596955196344E-05	-0.00167177205743309	0
3.66579117051402E-05	-0.000867253093036721	0
3.110820741882E-05	-0.000477793526989807	0
0.000198624715771387	0.000234530736739124	0
0.000183614815275336	0.000293275961770475	0
0.00021187729893205	-0.000465942143786617	0
0.00133246672511773	1.90611474766541E-05	0
0.00196926156065847	-0.000103865232678374	0
0.00234939614646709	-0.000300762180500351	0
0.000138363607658549	-0.000319281566501943	0
0.000143498575379374	-0.000327288668120732	0
0.000145679892171674	-0.00034522687277168	0
0.000152195403412862	-0.00037400451976475	0
0.000171499119082299	-0.000413422514242604	0
0.00027605748046525	-0.00052134410514773	0
0.00060903828750937	-0.000665251831514126	0
0.00109509607414779	-0.000745281917526586	0
0.00163339312993993	-0.000746454749246249	0
0.00210738766485951	-0.00066665029302182	0
0.00238409148139898	-0.000507298592439481	0
7.9751253849891E-05	-0.000329739762330557	0
0.000364770195716814	-0.000574599884174048	0
0.000476600843780041	-0.000623158695094642	0
0.000758809265070558	-0.000699962435155921	0
0.000921989163885551	-0.000726857262892718	0
0.00127427781511217	-0.00075468920911988	0
0.00145518339222913	-0.000755069243586668	0
0.00196396221429987	-0.000702673310557799	0
0.00222843519540096	-0.000621445619199281	0
0.00232181278445727	-0.000567521933156632	0
0.00241152800232406	-0.000441637445684861	0
0.00240040189825622	-0.000371885736582417	0
0.00225851060876986	-0.000229830932609441	0
0.00213013123824527	-0.000162596185998435	0
0.00177817198452641	-5.28834467123432E-05	0
0.00156322064013351	-1.14743719174453E-05	0
0.00109254477123226	3.98995850608589E-05	0
0.00084889284636588	5.25543508747892E-05	0
0.00060857688879358	5.92111116189915E-05	0
0.00040455246262963	5.66931833446628E-05	0
0.000106826049525629	-0.000337927214910526	0
0.000126662591633462	-0.000323402375326298	0
0.00180446853860888	-0.000729047915284293	0
0.00166774936546004	-0.00065947446570167	0
0.00201529227272712	-0.0022803994342797	0
0.0017904112353947	-0.00102836186959761	0
0.000658687665116189	-0.00207135091613025	0
0.000723931090935812	-0.00238089723883744	0
0.000872547701316719	-0.00335750862989268	0
0.00107137778243074	-0.00397638122936743	0
0.00138548407544962	-0.0041917846299408	0
0.00171215656352171	-0.00403765837872039	0
0.00197361390101299	-0.0033658815260287	0
0.000784132096161065	-0.00274546465949869	0
0.000830452606852276	-0.00307245164879612	0
0.00092740248443278	-0.00361614066071628	0
0.000994446805776135	-0.00383578607640274	0
0.00116900496306444	-0.00410153514418859	0
0.00127157008698327	-0.00416564383088605	0
0.00149887712731365	-0.00420110277720879	0
0.0016077448949268	-0.00414564674337738	0
0.00181697604774611	-0.00383900175918955	0
0.00190932372202319	-0.0036103691759155	0
0.00201892975434821	-0.00304380365590021	0
0.00203121537880746	-0.00268546012156865	0
0.0019655458427685	-0.00186616158173805	0
0.00188770454623478	-0.00144521397248974	0
0.000293582619502372	-0.0017878544289191	0
0.000380766229337238	-0.00177849829685729	0
0.000479898970904473	-0.0018044238363128	0
0.000581804938400385	-0.00187148004224411	0
0.000215328422027537	-0.00179591634773464	0
0.000147531928990545	-0.00181683097729503	0
0.000708852756372164	0.000268370701929412	0
0.0013117991806168	-5.47655281038422E-05	0
0.000911512560005379	0.000215794638376493	0
0.00111408903463734	0.000116813053077148	0
0.000499805009978732	0.000296844939471121	0
0.00151158288984256	-0.00033313973481913	0
0.000220428973689452	9.49098517141697E-05	0
7.83282158816352E-05	-0.0010106963767966	0
0.000412294155969971	0.000202502466519251	0
0.00237936109780252	-0.000804311190798076	0
0.00095064370165679	9.5795365879448E-05	0
0.0016447731649334	-6.16352996449826E-05	0
0.000202173585821176	-0.000789613672264619	0
0.000231599718981591	-0.000872186756590978	0
0.000456285028196959	-0.00118307120939141	0
0.000861260004234229	-0.00142707119654921	0
0.00136955368397874	-0.00150023866934196	0
0.00187145841713306	-0.00140866329328256	0
0.00225376523836914	-0.00120780923148479	0
0.000104896459189576	-0.000732345125530575	0
0.000574883229319349	-0.0012704028339938	0
0.00102317374124242	-0.00152331397897381	0
0.00154223416573587	-0.00146266703646362	0
0.00232968018246389	-0.00105476165392329	0
0.00234770754649736	-0.000663389669173259	0
0.00142664341132774	1.06036619355837E-05	0
0.000455665151664752	0.000125925490724659	0
0.00184586180642896	-0.000158167978906379	0
0.00201665162374546	-0.00137490848602201	0
0.00202312226792717	-0.000270382367568913	0
0.000714462457508189	0.00011328763479681	0
0.000160056574443378	-0.000652913687188291	0
0.00216743909258651	-0.000391352253645098	0
0.000282496260434807	-0.00097115268502796	0
0.000358171516456786	-0.00107910995454769	0
0.00071159464591987	-0.00134653162209982	0
0.00119591695790223	-0.00155487695850462	0
0.0021479116632666	-0.00134890083444904	0
0.00237248932409644	-0.000935187024439566	0
0.00227675770897097	-0.000520596393542715	0
0.000174688754148205	-0.000652741728706535	0
0.000183821852089295	-0.000681279870073736	0
0.000190870543245506	-0.000734911450479156	0
0.00119243218900726	6.29300895885338E-05	0
0.000138181925481786	-0.000681749073600031	0
0.00171160340669911	-0.00142598185940019	0
0.000615537170265506	-0.00244004572129626	0
0.000844960174989636	-0.0031257287625498	0
0.00118038281410618	-0.00343834547894945	0
0.00158342824064635	-0.00345027113358053	0
0.00183341652440605	-0.00325544404322045	0
0.00197382399376951	-0.00291700723974649	0
0.00215424355140906	-0.00238549567649391	0
0.00207986824226738	-0.00139794836278862	0
0.000545503762733956	-0.00213280834636242	0
0.000682236217835518	-0.00270199663180716	0
0.000757742387279472	-0.00293210520251624	0
0.00093868193516948	-0.00324108619791322	0
0.00104194970605879	-0.00317763888576905	0
0.00130250265937505	-0.00326506178249591	0
0.00145269168324507	-0.00345193927185968	0
0.00203585845681476	-0.00292964444588837	0
0.00211398192960146	-0.00265261202154436	0
0.0021608727134487	-0.00208507969679518	0
0.00213640228015734	-0.00174819605100693	0
0.00199855268217003	-0.00103943196285395	0
0.00171099336119663	-0.00339998054710613	0
0.00191098734006672	-0.000655286081869866	0
0.00043469419750176	-0.00172295070455839	0
0.000411165710247861	-0.00154372826542946	0
0.00172229909009646	-0.000370788393789704	0
9.63098830148327E-05	-0.00186509304792347	0
0.000213426158337863	-0.0014066284931416	0
0.00026908284769669	-0.00138298287818773	0
0.000321648905907627	-0.00136440247574426	0
0.000158878519701745	-0.00144024534448882	0
0.000329547296904747	0.000314607846544617	0
0.000612716824798371	0.000230689706445052	0
0.000864377848586526	0.000198596053215277	0
0.00109830336507602	0.000134172507930644	0
0.00135104306565753	1.06870815980126E-05	0
0.00038980538495721	-0.00147006287944074	0
0.00153338161248141	-0.000160318618557903	0
0.000373663998545116	0.000266073668939423	0
9.97597635664515E-05	-0.00145357668725551	0
6.4300486440503E-05	-0.00061821527434034	0
0.000119522245172533	-0.00113709802728202	0
0.00206898326271378	-0.000772013233780576	0
0.000395086915120693	-0.0016622780766834	0
0.000384052413055987	-0.00150573586686493	0
0.000691103188096185	-0.00192616891498042	0
0.00113758356786843	-0.00250890082517839	0
0.00191343895357172	-0.00205434063970162	0
0.00231109251223218	-0.00145308334284453	0
0.00226522683853504	-0.000868381869174071	0
0.000819724753100773	-0.00203824760174058	0
0.00215578616924759	-0.00210552380554401	0
0.00177388023101786	-0.00208002077480865	0
0.000468064386146988	-0.00166174528441384	0
0.00130877849229036	-0.00230124630058176	0
0.00233152668900692	-0.00127868535371337	0
0.00103607132851285	0.000125726012031715	0
0.00203300428453964	-0.00208055490353437	0
0.000570283191611174	-0.00180036698963925	0
0.000960268728929798	-0.00222857229782641	0
0.00146369158869557	-0.00215676112278788	0
0.0022658429043232	-0.00156552818981914	0
0.00231732267226264	-0.00107585187174272	0
0.00162031603946299	-0.00210934168138993	0
0.00127746481719258	5.93944301567126E-05	0
0.00149536874385754	-3.39141653101274E-05	0
0.00217850839397225	-0.000674203735684376	0
0.000323675309072233	-0.00135318789806816	0
0.000221256974830872	-0.000999965163905229	0
0.000241610625507656	-0.000997358751750722	0
0.000279786228977687	-0.00117765709899224	0
0.00168181761727313	-0.000162335481136646	0
0.000271251884533717	-0.00110766865953625	0
0.00189227539217178	-0.000343604330842181	0
0.000190755744435246	-0.0010254326382716	0
0.000800836314483802	0.000160557077605184	0
0.000153892891835937	-0.00106762886196466	0
0.000601959283800506	0.000169205638995786	0
0.00141163812475615	-0.00279364978324504	0
0.00153696761956315	-0.00278828995461005	0
0.00167846772833338	-0.00276618061967534	0
0.00181244359241936	-0.00270206857050783	0
5.38052348489987E-05	-0.000284996704316546	0
0.00192075519189406	-0.00260776605558633	0
0.000293617635279519	-0.00125995333302042	0
0.000445946230426441	-0.00186383282237288	0
0.000305554356680399	-0.00123049356925832	0
0.000516803228088142	-0.00208087528819503	0
0.000601704458950905	-0.00227696432685597	0
0.000701196140584192	-0.00245123288809637	0
0.000808550441960912	-0.00258175224962377	0
0.000908159610532485	-0.00265791165362927	0
0.00151953979119596	-8.78167602162521E-05	0
0.00205624392866757	-0.000516007311118754	0
0.00215351338441074	-0.00100399770141219	0
0.00222002832509351	-0.00127588225423139	0
0.00225525273952759	-0.00154931731357369	0
0.00225676080538983	-0.00179948797092218	0
0.00222554413481882	-0.00200482743534766	0
0.00125154914551307	-0.00578274501361961	0
0.00102762618755663	-0.00618073173371016	0
0.00114584441537808	-0.00604678678011124	0
0.00140941097171581	-0.00542216992358881	0
0.00141370093254271	-0.00435267050987537	0
0.00131029885670361	-0.00516745563912414	0
0.00129199195022706	-0.00455625878446538	0
0.00133556413485307	-0.00495356901577155	0
0.00131744631340544	-0.00533564170632472	0
0.00161189884918223	-0.00469008965654974	0
0.00161645180380156	-0.00388857759303305	0
0.00157789968172735	-0.0034074226529686	0
0.0015079656762847	-0.0028978774022704	0
0.00141249280494534	-0.00233035545288852	0
0.00162239536448375	-0.00432248330077382	0
0.00113923945794916	-0.00447330377200264	0
0.00127231584040098	-0.00387362619135356	0
0.000983030893827422	-0.00540835860566551	0
0.00126435533432236	-0.00329139516050756	0
0.00105819128506536	-0.00500830818748776	0
0.00153766762455358	-0.00486598093612823	0
0.00139847172716694	-0.00391285302278275	0
0.00157718910519092	-0.00564860534710173	0
0.00153524484500855	-0.00597315490752194	0
0.00158210925271497	-0.00528181482528548	0
0.00145972873538816	-0.00623758734352968	0
0.00137912779225865	-0.00589403536504804	0
0.00135495683393031	-0.00643029928353104	0
0.00138057745395922	-0.00622141427738684	0
0.0015761577701531	-0.00498347158124922	0
0.00123264434920067	-0.00540836461945516	0
0.00134988249894566	-0.00545789824213103	0
0.00142391203216683	-0.00566883177242227	0
0.00137726820158334	-0.00482703155913865	0
0.00141440885547792	-0.00431088515063081	0
0.00103971494745633	-0.00582833716451532	0
0.00142307053320408	-0.00600395323468314	0
0.00137824779440577	-0.00570709445798998	0
0.00144236833234493	-0.00538137106934409	0
0.00144698483065546	-0.00510281474249787	0
0.00137143030612739	-0.00586636333519602	0
0.00121450730828264	-0.00637524357901278	0
0.00128084154747627	-0.00619282017244481	0
0.00135214161203363	-0.00603690781971655	0
CELL_DATA 691
SCALARS E11 float 1
LOOKUP_TABLE default
-2.04664205002521E-05
1.05414725492918E-06
6.46537591759835E-06
2.2524767822687E-06
-1.93468920808709E-05
-1.79605229180252E-05
-2.05091747222765E-05
-1.55149068928239E-05
-1.72278846189639E-05
-1.05254110839329E-05
-9.18279293877082E-06
2.81519907109534E-06
9.821893473952E-07
4.56028975484388E-06
1.15468801584973E-07
4.34821707140468E-06
4.31998346337476E-07
4.14900813339675E-06
1.8489285717008E-07
5.57205035635005E-07
2.83879198996753E-06
3.37068217854272E-06
2.59829456638669E-06
5.37065750610799E-06
5.23164113425191E-06
1.33724386749059E-05
8.72329842284865E-06
1.53796429535427E-05
1.13972536157352E-05
1.41134786347087E-05
1.08727601690376E-05
9.18789702168151E-06
7.91198271218738E-06
7.48248252768399E-07
3.2814602429073E-06
4.49315716407217E-06
2.99137878168482E-06
3.28493724366135E-06
3.60028235455966E-06
4.54136472301121E-06
4.66960578486146E-06
4.26352164111436E-06
4.02894364736108E-06
3.77576699908066E-06
2.92471461675837E-06
2.76141852520023E-06
2.95894354906522E-06
4.16593357223583E-06
7.45118146714695E-06
1.11459468383972E-05
9.96926453218777E-06
8.31245937370786E-06
1.2605917413771E-05
1.45701200735031E-05
1.36228152479407E-05
1.14027194703017E-05
1.5081391003147E-05
1.49995903236149E-05
1.46613567682806E-05
1.25156708793697E-05
1.34242666350156E-05
1.20718273795385E-05
1.02784099660382E-05
9.42418473143564E-06
1.01883881568014E-05
5.24180315657739E-06
6.36446516439466E-06
3.64925097572202E-06
2.30933025700994E-06
-4.29001952672792E-06
-2.67382438236753E-06
-6.08128232353423E-06
-7.60474592461403E-06
-1.36508702028716E-05
-9.91082401175582E-06
-1.27604496872116E-05
-1.61535832211298E-05
-1.94236928168455E-05
-1.86078177887E-05
-1.58889629590474E-05
-2.01917541548741E-05
-2.05072376098575E-05
-1.62739444166822E-05
-2.05251712164683E-05
-2.01427713348883E-05
-2.04920328746134E-05
-1.82859451581406E-05
-1.88376100056532E-05
-1.77913751644717E-05
-1.67519206793529E-05
-1.5996267908462E-05
-1.62646147226118E-05
-1.99163279685658E-05
5.44150271837152E-06
3.47145163602142E-06
4.89783469600423E-06
4.58079109054712E-06
2.98785485811126E-06
2.52974738909369E-06
2.60860935039871E-06
2.26575353736229E-06
-1.70642202559683E-05
-1.71657393714345E-05
-1.55510762496655E-05
-1.792210785389E-05
4.27116235476648E-06
4.35914238369269E-06
-1.59574868579785E-05
-1.99536133873612E-05
-1.7059980869245E-05
-1.49871146167922E-05
-4.1201608211581E-06
-5.92056645798319E-06
6.98351225455838E-06
5.100310256412E-07
2.17183526466629E-07
7.82232347402107E-06
9.88727967618299E-07
8.42449718330603E-06
1.64551686756993E-06
1.66676923717257E-06
2.41995351708172E-06
2.90862841254595E-06
8.53538182335946E-06
4.24893479037791E-06
4.53678228801084E-06
1.20550305379859E-05
8.22173778341856E-06
1.50605556479153E-05
9.42404407372558E-06
1.49099112388155E-05
8.36327597403486E-06
1.12893143548715E-05
3.89175029225219E-06
3.85444956218169E-06
1.75602429054502E-06
4.47332521148017E-06
9.40759779991653E-06
6.31203826001114E-06
1.04273449885385E-05
7.05727569452754E-06
1.3734533506492E-05
1.07216870756279E-05
1.437866257443E-05
1.07667522191646E-05
1.52264828021288E-05
1.42482363451086E-05
1.53304136243377E-05
1.26796200877286E-05
1.23715704347837E-05
1.29319213084424E-05
7.85946110614762E-06
7.68529822756082E-06
6.66980310616152E-06
6.61470430259723E-06
-9.36364739873232E-07
3.71816887824588E-06
-2.56860555625558E-06
-3.00002890730414E-06
-1.07408737668657E-05
-1.04608803314682E-05
-1.22668258867896E-05
-1.47253188141524E-05
-1.81034633080066E-05
-1.64663449900097E-05
-1.88943476567613E-05
-1.57228830463871E-05
-2.06823990838484E-05
-1.96092091962261E-05
-2.06346269341808E-05
-2.00100122781522E-05
-2.04186264102658E-05
-1.75772278396156E-05
-2.05175306646002E-05
-2.02417314452343E-05
1.63088739657027E-06
6.15160363263975E-06
1.12532773523215E-06
4.55887032156536E-06
1.08494352985915E-05
1.43991226619184E-05
-6.96713343634909E-06