# vtk DataFile Version 1.0 
3D triangulation data 
ASCII

DATASET POLYDATA
POINTS 273 float
116.93 117. 0
133.279999 0. 0
317.160004 0. 0
305.890015 11.5 0
252.990005 11.5 0
114.629997 117. 0
98.2799988 0. 0
111.047813 113.34375 0
0. 0. 0
118.187691 108. 0
119.445381 99. 0
120.703079 90. 0
121.96077 81. 0
123.21846 72. 0
124.476151 63. 0
125.733849 54. 0
126.991539 45. 0
128.249237 36. 0
129.506927 27. 0
130.764618 18. 0
132.022308 9. 0
142.473999 0. 0
151.667999 0. 0
160.862 0. 0
170.056 0. 0
179.25 0. 0
188.444 0. 0
197.638 0. 0
206.832001 0. 0
216.026001 0. 0
225.220001 0. 0
234.414001 0. 0
243.608002 0. 0
252.802002 0. 0
261.996002 0. 0
271.190002 0. 0
280.384003 0. 0
289.578003 0. 0
298.772003 0. 0
307.966003 0. 0
311.524994 5.75 0
297.073334 11.5 0
288.256653 11.5 0
279.440002 11.5 0
270.623322 11.5 0
261.806671 11.5 0
245.828949 17.0526314 0
238.667892 22.6052628 0
231.506836 28.1578941 0
224.345795 33.7105255 0
217.184738 39.2631569 0
210.023682 44.8157883 0
202.862625 50.3684196 0
195.701584 55.921051 0
188.540527 61.4736824 0
181.379471 67.0263138 0
174.218414 72.578949 0
167.057373 78.1315765 0
159.896317 83.6842117 0
152.73526 89.2368393 0
145.574203 94.7894745 0
138.413162 100.342102 0
131.252106 105.894737 0
124.091049 111.447365 0
113.372307 108. 0
112.114616 99. 0
110.856926 90. 0
109.599228 81. 0
108.341537 72. 0
107.083847 63. 0
105.826157 54. 0
104.568459 45. 0
103.310768 36. 0
102.053078 27. 0
100.795387 18. 0
99.5376892 9. 0
107.029999 0. 0
115.779999 0. 0
124.529999 0. 0
104.878487 107.046875 0
98.7091675 100.75 0
92.5398407 94.453125 0
86.3705215 88.15625 0
80.2011948 81.859375 0
74.0318756 75.5625 0
67.8625488 69.265625 0
61.6932297 62.96875 0
55.5239067 56.671875 0
49.3545837 50.375 0
43.1852608 44.078125 0
37.0159378 37.78125 0
30.8466148 31.484375 0
24.6772919 25.1875 0
18.5079689 18.890625 0
12.3386459 12.59375 0
6.16932297 6.296875 0
8.93454552 0. 0
17.869091 0. 0
26.8036366 0. 0
35.7381821 0. 0
44.6727257 0. 0
53.6072731 0. 0
62.5418167 0. 0
71.4763641 0. 0
80.4109116 0. 0
89.3454514 0. 0
219.638596 7.77738047 0
138.170639 23.79846 0
136.767975 32.6209755 0
135.438095 41.5959396 0
134.175583 50.6053963 0
132.936905 59.8527946 0
131.182922 68.8452835 0
129.673615 77.3412857 0
129.123337 86.2723083 0
128.614655 96.6695862 0
302.39859 5.77084446 0
244.433853 6.84429121 0
228.067169 9.21772194 0
211.130814 7.63484335 0
202.260086 7.69612169 0
193.330154 7.88473654 0
184.131409 8.19863415 0
174.700256 7.99136782 0
165.466568 7.95555592 0
156.103333 7.7724638 0
146.799332 7.32229996 0
124.318176 104.202339 0
137.099976 90.9374771 0
144.43396 85.5404739 0
151.47258 80.0375519 0
158.610107 74.5928955 0
165.817978 69.1327133 0
172.986572 63.5953407 0
180.147812 58.0443192 0
187.307388 52.4902763 0
194.467072 46.935791 0
201.629028 41.3721123 0
208.804153 35.7627487 0
216.041672 30.1935978 0
223.205521 24.7110291 0
230.074127 18.8645535 0
236.914322 12.4307432 0
171.787552 54.6187973 0
193.217285 37.7259674 0
157.506241 65.4844055 0
207.756927 26.4187202 0
136.616226 81.7410965 0
215.187256 21.2411232 0
186.072052 43.3833542 0
150.103165 70.7674408 0
200.404129 32.0066719 0
164.727676 60.1200142 0
143.240555 76.4941177 0
178.92218 49.0276833 0
221.87709 15.9267988 0
140.56897 14.4226284 0
139.028931 6.14898586 0
145.530045 29.2742863 0
142.581436 47.1021042 0
141.516968 56.3393326 0
140.646545 66.8465424 0
144.122604 38.2169991 0
198.315613 14.4133415 0
293.707245 5.75764275 0
179.43808 16.0720062 0
170.382828 15.9317827 0
160.768768 16.2032528 0
150.874268 15.2996588 0
189.872742 17.4453697 0
206.982071 16.2562771 0
163.474365 51.3352089 0
156.808151 56.6326523 0
149.348724 61.381321 0
199.202499 22.4433441 0
191.737549 28.0833054 0
170.255142 45.4896774 0
184.601013 34.0710564 0
177.468262 39.7586174 0
149.60643 52.3890343 0
151.119965 43.9392662 0
152.875748 35.10606 0
145.990677 21.5055389 0
214.963165 13.7672844 0
286.273193 5.75152874 0
175.110535 22.5629292 0
182.797943 24.7804241 0
154.828461 25.0870953 0
166.7117 25.57304 0
160.557983 41.9691277 0
168.658813 35.9807701 0
156.313385 49.2530594 0
175.891373 30.4544735 0
160.726547 32.7432175 0
136.271973 74.2536697 0
124.037292 11.6095896 0
122.123238 20.2909775 0
120.343155 29.1399708 0
119.484741 38.3629379 0
118.381958 47.2961464 0
115.466988 56.7201767 0
115.721031 66.8866119 0
115.768204 74.5773239 0
109.968842 10.074852 0
111.943329 21.5351105 0
111.414261 32.1883163 0
111.391869 41.2658195 0
118.266327 7.20996809 0
117.267807 14.1440992 0
111.127083 48.8564301 0
92.9492569 14.1435375 0
93.844635 23.3716602 0
94.9977722 32.528904 0
96.2739182 41.4617043 0
97.2874756 50.5089722 0
98.7423325 59.4108429 0
99.7254715 68.0516434 0
99.2155151 77.9821777 0
101.615608 87.5875854 0
103.452438 96.4729309 0
21.0763988 8.79547501 0
27.5367756 16.4746819 0
33.5374832 22.9745579 0
39.6295357 29.1290417 0
45.7371063 35.3910713 0
51.8146286 41.7862091 0
57.9285202 48.1423988 0
64.0838242 54.4544373 0
70.3067245 60.7709541 0
76.586731 67.1999893 0
82.8408508 73.6129837 0
89.0092468 79.8172531 0
93.750145 85.5992813 0
93.022377 6.41614437 0
75.762886 7.96988916 0
66.9817734 7.81345558 0
57.7528076 7.8420186 0
48.6531296 7.47579813 0
40.1119995 7.27139854 0
31.2826004 7.89648438 0
13.2776012 5.53722 0
85.2192078 9.04942894 0
91.5270538 71.5087509 0
86.4539719 28.7923756 0
85.3901978 65.2662201 0
54.6163483 33.0884247 0
62.2330437 15.9590845 0
51.6194687 16.5421219 0
36.4601059 14.7451229 0
71.4911194 15.8295288 0
60.5782967 39.5902176 0
66.6160889 45.9770088 0
72.7811279 52.3221741 0
92.8988495 64.1303406 0
88.0401688 37.9230118 0
89.0890274 46.5477142 0
89.1220703 56.3806114 0
79.2481155 58.6833534 0
85.8233109 19.150013 0
48.6420708 26.4968243 0
42.3084717 20.5306015 0
79.1096268 15.2169409 0
69.2977676 37.7101364 0
75.2078094 44.0554771 0
81.3282928 50.1345863 0
63.5219765 31.4490128 0
43.8306351 13.3130083 0
58.0215263 24.5378551 0
67.2903595 23.7003918 0
78.5708237 35.1037216 0
77.1374359 24.0191422 0
71.1636734 30.3964806 0
82.4472275 42.752903 0
POLYGONS 462 1848
3 127 9 10
3 155 118 141
3 184 37 164
3 157 1 21
3 157 126 156
3 156 19 20
3 133 56 132
3 108 18 107
3 109 17 108
3 110 16 109
3 111 15 110
3 112 14 111
3 113 13 112
3 114 11 12
3 115 10 11
3 39 2 40
3 116 39 40
3 164 116 41
3 164 38 116
3 43 35 36
3 44 34 35
3 33 34 4
3 117 33 4
3 117 4 46
3 142 46 47
3 142 31 117
3 119 29 106
3 120 28 119
3 121 27 120
3 122 26 121
3 123 25 122
3 124 24 123
3 125 23 124
3 126 21 22
3 116 40 3
3 45 4 34
3 44 45 34
3 43 44 35
3 184 42 43
3 164 41 42
3 63 0 9
3 127 63 9
3 128 115 114
3 147 129 128
3 153 129 147
3 150 145 131
3 145 132 131
3 143 134 133
3 166 123 165
3 134 55 133
3 154 134 143
3 154 149 135
3 144 137 136
3 151 137 144
3 148 140 139
3 183 155 148
3 155 141 140
3 142 47 141
3 106 29 30
3 118 106 30
3 107 18 19
3 169 122 121
3 132 57 131
3 108 17 18
3 179 172 173
3 109 16 17
3 131 58 130
3 110 15 16
3 130 59 129
3 111 14 15
3 129 60 128
3 112 13 14
3 147 114 113
3 113 12 13
3 115 61 62
3 114 12 113
3 127 115 62
3 115 11 114
3 116 38 39
3 116 3 41
3 117 31 32
3 117 32 33
3 118 30 31
3 141 47 48
3 138 51 137
3 119 28 29
3 137 52 136
3 120 27 28
3 136 53 135
3 121 26 27
3 135 54 134
3 122 25 26
3 149 144 136
3 123 24 25
3 167 124 166
3 124 23 24
3 187 182 168
3 125 22 23
3 168 156 126
3 126 22 125
3 127 62 63
3 127 10 115
3 128 60 61
3 128 61 115
3 194 161 153
3 129 59 60
3 173 161 160
3 130 58 59
3 179 173 160
3 131 57 58
3 180 179 159
3 132 56 57
3 162 108 158
3 133 55 56
3 192 185 186
3 134 54 55
3 175 174 151
3 135 53 54
3 151 146 138
3 136 52 53
3 174 170 146
3 137 51 52
3 146 139 138
3 138 50 51
3 139 49 50
3 139 50 138
3 140 48 49
3 140 49 139
3 142 141 118
3 141 48 140
3 142 118 31
3 142 117 46
3 152 133 132
3 176 143 171
3 149 136 135
3 169 121 163
3 150 131 130
3 191 172 179
3 151 138 137
3 183 170 119
3 147 128 114
3 194 153 147
3 148 139 146
3 183 106 155
3 188 166 185
3 178 154 176
3 153 150 130
3 161 150 153
3 169 165 122
3 174 163 170
3 152 143 133
3 152 132 145
3 153 130 129
3 194 147 113
3 154 135 134
3 181 180 162
3 155 140 148
3 155 106 118
3 156 107 19
3 157 156 20
3 157 20 1
3 157 21 126
3 158 108 107
3 182 156 168
3 159 110 109
3 162 159 109
3 160 111 110
3 160 110 159
3 161 112 111
3 161 111 160
3 162 109 108
3 193 190 189
3 163 121 120
3 170 163 120
3 184 164 42
3 164 37 38
3 165 123 122
3 177 175 144
3 191 189 171
3 166 124 123
3 187 181 158
3 167 125 124
3 168 126 125
3 168 125 167
3 174 169 163
3 186 169 175
3 170 120 119
3 170 148 146
3 171 143 152
3 172 171 152
3 172 152 145
3 173 172 145
3 173 145 150
3 173 150 161
3 174 146 151
3 175 151 144
3 177 144 149
3 175 169 174
3 192 188 185
3 176 154 143
3 178 177 149
3 192 186 177
3 178 149 154
3 193 189 181
3 179 160 159
3 180 159 162
3 181 162 158
3 191 180 189
3 187 158 182
3 188 187 167
3 182 158 107
3 182 107 156
3 183 148 170
3 183 119 106
3 184 43 36
3 184 36 37
3 185 166 165
3 186 185 165
3 186 165 169
3 186 175 177
3 187 168 167
3 188 167 166
3 192 190 188
3 193 187 188
3 189 176 171
3 189 180 181
3 190 178 176
3 190 176 189
3 191 171 172
3 191 179 180
3 192 177 178
3 192 178 190
3 193 181 187
3 193 188 190
3 194 113 112
3 194 112 161
3 207 78 195
3 195 20 19
3 196 195 19
3 197 196 18
3 198 197 17
3 199 198 16
3 209 200 70
3 201 69 200
3 202 68 201
3 67 12 11
3 66 11 10
3 65 10 9
3 64 9 5
3 9 0 5
3 76 75 6
3 208 203 207
3 208 204 203
3 205 204 197
3 206 205 198
3 209 199 200
3 200 69 70
3 201 68 69
3 202 67 68
3 66 67 11
3 65 66 10
3 64 65 9
3 78 1 20
3 195 78 20
3 203 76 77
3 196 19 18
3 207 203 77
3 197 18 17
3 204 196 197
3 198 17 16
3 205 197 198
3 199 16 15
3 206 198 199
3 200 199 15
3 209 206 199
3 200 15 14
3 201 200 14
3 201 14 13
3 202 201 13
3 202 13 12
3 202 12 67
3 203 74 75
3 203 75 76
3 204 73 74
3 204 74 203
3 205 72 73
3 205 73 204
3 206 71 72
3 206 72 205
3 207 77 78
3 208 207 195
3 208 195 196
3 208 196 204
3 209 70 71
3 209 71 206
3 241 105 233
3 210 75 74
3 211 210 74
3 212 211 73
3 213 212 72
3 214 213 71
3 215 214 70
3 242 217 231
3 231 82 83
3 219 218 66
3 219 65 79
3 79 65 64
3 79 64 7
3 64 5 7
3 95 8 96
3 240 95 96
3 240 220 94
3 221 93 220
3 222 92 221
3 223 91 222
3 224 90 223
3 225 89 224
3 250 225 245
3 226 88 225
3 227 87 226
3 228 86 227
3 244 230 229
3 242 231 230
3 232 231 217
3 219 81 218
3 219 79 80
3 233 6 75
3 258 210 211
3 241 234 104
3 267 259 247
3 268 267 246
3 247 236 246
3 248 239 238
3 239 220 98
3 220 97 98
3 240 96 97
3 211 74 73
3 270 268 249
3 212 73 72
3 249 246 235
3 213 72 71
3 267 265 245
3 214 71 70
3 251 226 250
3 215 70 69
3 252 227 251
3 216 215 69
3 253 216 242
3 216 69 68
3 217 216 68
3 217 68 67
3 218 217 67
3 218 67 66
3 232 81 82
3 219 66 65
3 219 80 81
3 239 221 220
3 220 93 94
3 248 221 239
3 221 92 93
3 237 101 236
3 222 91 92
3 236 102 235
3 223 90 91
3 235 103 234
3 224 89 90
3 272 264 263
3 225 88 89
3 269 263 262
3 226 87 88
3 256 215 253
3 227 86 87
3 264 257 252
3 228 85 86
3 229 84 85
3 229 85 228
3 230 83 84
3 230 84 229
3 232 217 218
3 231 83 230
3 232 218 81
3 232 82 231
3 233 105 6
3 233 75 210
3 234 103 104
3 258 211 243
3 260 259 223
3 235 102 103
3 260 222 248
3 236 101 102
3 266 247 260
3 237 100 101
3 238 99 100
3 238 100 237
3 239 98 99
3 239 99 238
3 240 94 95
3 240 97 220
3 241 104 105
3 241 233 210
3 244 242 230
3 242 216 217
3 243 211 212
3 254 212 213
3 257 229 228
3 256 255 214
3 271 265 268
3 245 225 224
3 246 236 235
3 249 235 234
3 259 245 224
3 247 237 236
3 266 260 248
3 248 222 221
3 270 261 258
3 271 269 262
3 262 251 250
3 250 226 225
3 272 255 264
3 251 227 226
3 264 256 257
3 252 228 227
3 253 215 216
3 253 242 244
3 254 243 212
3 255 254 213
3 255 213 214
3 256 214 215
3 256 253 244
3 257 256 244
3 257 244 229
3 257 228 252
3 261 241 258
3 258 241 210
3 259 224 223
3 260 223 222
3 266 248 238
3 260 247 259
3 261 249 234
3 261 234 241
3 265 262 250
3 272 269 254
3 263 252 251
3 263 251 262
3 264 252 263
3 264 255 256
3 265 250 245
3 268 265 267
3 266 238 237
3 266 237 247
3 267 245 259
3 267 247 246
3 268 246 249
3 270 249 261
3 271 270 269
3 269 243 254
3 270 258 243
3 270 243 269
3 271 262 265
3 271 268 270
3 272 263 269
3 272 254 255
POINT_DATA 273
SCALARS Tempreture float 1
LOOKUP_TABLE default
25
16.3952999
25
25
25
25
12.2663527
5
5
17.1783418
16.4402118
16.1496073
16.0829966
15.9851564
15.9562957
15.9598692
15.9754828
16.0126867
16.0715032
16.1520578
16.2563578
17.6119298
18.7535590
19.8143622
20.7823023
21.6478299
22.4084088
23.0632600
23.6126397
24.0604869
24.4094576
24.6649355
24.8456913
24.9459970
24.9816359
24.9937925
24.9978004
24.9994618
24.9998509
24.9999694
25
25
25
25
25
25
25
25
25
25
25
25
25
25
25
25
25
25
25
25
25
25
25
25
11.7408156
12.3311679
12.4642281
12.4874373
12.5895357
12.6194318
12.6224825
12.6278763
12.6068904
12.5647999
12.4970178
12.4005375
13.2902186
14.3276557
15.3654950
5
5
5
5
5
5
5
5
5
5
5
5
5
5
5
5
5
5.0630832
5.2634782
5.5883604
6.0304015
6.5979440
7.2878791
8.0903633
8.9984773
10.0069144
11.0991142
24.2424417
17.2555578
17.2364521
17.2771838
17.3848103
17.5796623
17.7549460
18.0421027
18.8692922
20.6190523
24.9999388
24.8809308
24.5432707
23.8676179
23.3881539
22.8083086
22.1070748
21.2730400
20.3484945
19.3080025
18.1815841
20.8304303
22.1138970
22.7807045
23.1632528
23.4691293
23.7094167
23.8902570
24.0409818
24.1721266
24.2891787
24.3955405
24.4927361
24.5879752
24.6751824
24.7391871
24.7957512
22.9573302
23.6819388
22.2408749
24.0839784
20.3670389
24.2856460
23.4662687
21.6881766
23.8830839
22.6474784
21.1258210
23.2280186
24.4322554
17.4486109
17.1783990
18.3856811
18.6139784
18.9454761
19.5743148
18.4726313
23.2376297
24.9997757
21.8303203
20.9706595
19.9512493
18.7733435
22.7098644
23.7775185
21.7728111
21.3308455
20.6256975
23.4816039
23.1594111
22.1424451
22.8588809
22.5208438
19.9843329
19.7144713
19.5470532
18.2645221
24.1223965
24.9993939
21.5931148
22.3472326
19.4637733
20.8361744
20.8348267
21.4486746
20.7266716
21.9383982
20.4206345
19.3710743
15.3179231
15.1088167
14.9087072
14.8260940
14.7001227
14.2396486
14.2772249
14.2842120
13.6293773
13.8389947
13.7281565
13.6677403
14.6236690
14.5042374
13.5642552
11.4777614
11.4623258
11.4255070
11.3608451
11.1890490
11.0261612
10.7125831
9.7162562
9.2403524
8.1994740
5.3057510
5.4056681
5.5005390
5.6125072
5.7254279
5.8305525
5.9468871
6.0829492
6.2475933
6.4440072
6.6882002
7.0283587
7.2363382
11.5526337
9.4326460
8.4887784
7.6037298
6.8499157
6.2522923
5.7442821
5.1223845
10.5457549
8.6126643
10.3330309
8.0857496
6.5724076
7.8843229
6.9250222
5.9056227
8.8449248
6.7831022
7.0238854
7.3108615
9.5732720
10.2453905
10.0270613
9.4541013
7.6895612
10.4823578
6.3683100
6.1142623
9.7264336
7.8254025
8.1932526
8.6444515
7.5035136
6.4063267
7.2426306
8.1879285
9.0799246
9.2912950
8.3754964
9.2378665