# vtk DataFile Version 1.0
3D triangulation data
ASCII

DATASET POLYDATA
POINTS 5 float
0.00 0.00 0.00
0.05 0.06 0.00
0.10 0.00 0.00
0.15 0.06 0.00
0.20 0.00 0.00
LINES 7 21
2	0	1
2	1	2
2	0	2
2	2	3
2	3	4
2	2	4
2	1	3
POINT_DATA 5
VECTORS Displacements float
0.00000000e+00 0.00000000e+00 0 
2.08333333e-09 -5.04461965e-09 0
6.27774459e-25 -1.00892393e-08 0
-2.08333333e-09 -5.04461965e-09 0	
0.00000000e+00 0.00000000e+00 0



