# vtk DataFile Version 1.0
3D triangulation data
ASCII

DATASET POLYDATA
POINTS 13 float
6.78988647 0. 0
3.75697184 0.741771281 0
6.78988647 1.5 0
9.38103199 2.14778638 0
12.7898865 0. 0
12.7898865 3. 0
15.0334682 3.56089544 0
18.7898865 0. 0
18.7898865 4.5 0
21.7898865 5.25 0
24.7898865 0. 0
24.7898865 6. 0
0.789886594 0. 0
LINES 23 69
2  0  1
2  2  1
2  0  2
2  3  0
2  4  3
2  4  5
2  6  5
2  6  4
2  4  7
2  7  6
2  8  6
2  7  8
2  9  7
2  10  9
2  10  11
2  11  9
2  9  8
2  1  12
2  3  2
2  0  4
2  12  0
2  5  3
2  7  10
POINT_DATA 13
VECTORS Displacements float
0.001781430451424 -0.029746754094641 0
0.003606230049056 -0.023653451618150 0
0.003125795113759 -0.029821754076120 0
0.000984337848769 -0.028167585961032 0
0.002415371494066 -0.024859042664530 0
-0.001308438041965 -0.025009042675263 0
-0.003438325810638 -0.020446736103469 0
0.001887037563128 -0.013498370137183 0
-0.005928280364356 -0.013723370140718 0
-0.008451965256600 -0.006213368566948 0
0 0 0
-0.009930307398337 -0.000300000000000 0
0 0 0
CELL_DATA 23
SCALARS Forces float 1
LOOKUP_TABLE default
-0.204014165593142e+04
-1.251729328976659e+04
-0.099196683594075e+04
0.234451682935661e+04
-0.273698748668097e+04
-0.098459179878496e+04
-0.825456957447756e+04
0.294145122820618e+04
-0.172525862244181e+04
-0.350883915037839e+04
-0.402060916185689e+04
-0.096983596516430e+04
0.399781330457802e+04
-0.394392028085440e+04
-0.097260670325561e+04
0.003885321537864e+04
-0.398924792698410e+04
-1.402959548703818e+04
-1.254621313440985e+04
0.211977213017955e+04
0.618382422162219e+04
-0.828964659555466e+04
-0.623949657472404e+04



