# vtk DataFile Version 1.0 
3D triangulation data 
ASCII

DATASET POLYDATA
POINTS 147 float
137 68 0
111 55 0
0 0 0
287 0 0
287 13 0
260 13 0
150 68 0
165 13 0
128 13 0
141 65 0
147 65 0
128 63 0
119 59 0
102 50 0
92 46 0
83 41 0
74 36 0
64 32 0
55 27 0
46 23 0
37 18 0
27 13 0
18 9 0
9 4 0
9 0 0
19 0 0
29 0 0
39 0 0
49 0 0
59 0 0
69 0 0
79 0 0
89 0 0
99 0 0
108 0 0
118 0 0
128 0 0
138 0 0
148 0 0
158 0 0
168 0 0
178 0 0
188 0 0
198 0 0
207 0 0
217 0 0
227 0 0
237 0 0
247 0 0
257 0 0
267 0 0
277 0 0
278 13 0
269 13 0
251 17 0
241 22 0
232 26 0
223 31 0
214 36 0
205 40 0
195 45 0
186 49 0
177 54 0
168 58 0
159 63 0
156 13 0
146 13 0
137 13 0
130 23 0
133 33 0
136 44 0
138 54 0
150 54 0
154 44 0
158 33 0
161 23 0
118 49 0
127 52 0
45 10 0
93 8 0
54 7 0
63 10 0
74 8 0
83 8 0
104 9 0
116 9 0
183 8 0
202 8 0
212 9 0
223 10 0
232 7 0
242 10 0
193 8 0
253 8 0
186 38 0
161 52 0
205 29 0
224 21 0
232 16 0
215 25 0
196 34 0
176 42 0
169 50 0
72 25 0
92 35 0
83 28 0
55 16 0
63 21 0
35 8 0
101 40 0
110 45 0
119 20 0
125 42 0
121 31 0
168 33 0
173 22 0
173 9 0
125 6 0
78 17 0
98 18 0
108 18 0
206 18 0
263 6 0
216 16 0
198 15 0
190 16 0
88 18 0
186 26 0
178 32 0
197 23 0
92 25 0
102 28 0
111 35 0
112 27 0
134 7 0
181 16 0
70 16 0
117 40 0
162 7 0
271 6 0
164 42 0
154 6 0
151 21 0
143 37 0
142 24 0
144 47 0
152 30 0
POLYGONS 231 924
3 6 0 9
3 10 6 9
3 101 94 61
3 100 60 94
3 141 138 65
3 139 53 122
3 109 14 104
3 26 22 25
3 78 27 28
3 77 11 12
3 71 0 11
3 76 12 1
3 110 13 109
3 133 132 131
3 84 33 34
3 118 82 83
3 107 18 106
3 106 19 78
3 80 28 29
3 108 78 20
3 26 21 22
3 25 22 23
3 25 23 24
3 24 23 2
3 108 26 27
3 80 78 28
3 81 80 29
3 82 81 30
3 83 32 79
3 105 104 15
3 130 105 126
3 84 79 33
3 120 119 84
3 85 84 34
3 134 117 36
3 134 67 8
3 66 37 38
3 141 39 138
3 138 40 116
3 116 40 41
3 86 41 42
3 123 121 88
3 99 97 57
3 98 89 90
3 91 90 47
3 98 91 55
3 93 91 48
3 93 54 91
3 122 93 49
3 122 49 50
3 52 51 3
3 52 3 4
3 139 122 50
3 122 53 5
3 98 97 89
3 123 89 97
3 123 99 121
3 124 87 121
3 100 96 59
3 92 42 43
3 102 62 63
3 102 63 95
3 95 64 72
3 72 64 10
3 64 6 10
3 134 8 117
3 37 67 134
3 141 65 66
3 71 9 0
3 112 77 76
3 112 70 77
3 133 131 120
3 115 114 75
3 140 101 102
3 102 101 62
3 95 72 73
3 77 70 71
3 110 1 13
3 77 71 11
3 77 12 76
3 78 19 20
3 108 20 21
3 105 16 103
3 79 32 33
3 81 29 30
3 106 78 80
3 82 30 31
3 107 106 81
3 83 82 31
3 136 118 103
3 83 31 32
3 126 105 118
3 85 34 35
3 131 104 130
3 117 85 35
3 111 8 68
3 125 92 124
3 135 116 86
3 87 43 44
3 88 87 44
3 88 44 45
3 89 88 45
3 89 45 46
3 90 89 46
3 90 46 47
3 98 90 91
3 91 47 48
3 91 54 55
3 92 86 42
3 92 43 87
3 93 48 49
3 93 5 54
3 128 115 127
3 94 60 61
3 140 73 74
3 95 63 64
3 96 58 59
3 100 59 60
3 97 56 57
3 99 57 58
3 98 55 56
3 98 56 97
3 99 58 96
3 121 99 96
3 135 127 115
3 129 127 125
3 101 61 62
3 114 74 75
3 140 95 73
3 140 114 101
3 103 16 17
3 107 17 18
3 104 14 15
3 105 15 16
3 118 105 103
3 130 126 119
3 106 18 19
3 106 80 81
3 136 81 82
3 107 103 17
3 108 21 26
3 108 27 78
3 113 69 112
3 109 13 14
3 137 132 113
3 110 76 1
3 111 85 8
3 113 68 69
3 112 69 70
3 137 76 110
3 132 110 109
3 113 111 68
3 115 75 7
3 128 101 114
3 116 115 7
3 135 125 127
3 138 116 7
3 116 41 86
3 117 8 85
3 117 35 36
3 136 103 107
3 126 83 79
3 119 79 84
3 120 84 85
3 120 85 111
3 133 113 132
3 129 121 96
3 121 87 88
3 122 5 93
3 139 50 51
3 123 88 89
3 123 97 99
3 124 92 87
3 129 96 100
3 129 125 124
3 125 86 92
3 126 118 83
3 126 79 119
3 127 100 94
3 128 127 94
3 128 94 101
3 128 114 115
3 129 124 121
3 129 100 127
3 131 130 119
3 130 104 105
3 131 109 104
3 131 119 120
3 137 113 112
3 132 109 131
3 133 120 111
3 133 111 113
3 134 36 37
3 67 37 66
3 135 115 116
3 135 86 125
3 136 107 81
3 136 82 118
3 137 112 76
3 137 110 132
3 138 39 40
3 138 7 65
3 139 51 52
3 139 52 53
3 140 102 95
3 140 74 114
3 141 66 38
3 141 38 39
3 143 70 69
3 145 70 143
3 144 143 69
3 142 65 75
3 65 7 75
3 146 75 74
3 145 71 70
3 71 72 10
3 71 10 9
3 146 144 142
3 144 67 66
3 144 66 142
3 68 8 67
3 142 66 65
3 146 143 144
3 146 73 143
3 145 143 73
3 144 69 68
3 144 68 67
3 145 73 72
3 145 72 71
3 146 142 75
3 146 74 73
POINT_DATA 147
SCALARS Tempreture float 1
LOOKUP_TABLE default
25.0000000
25.0000000
5.0000000
25.0000000
25.0000000
25.0000000
25.0000000
22.0827051
17.4821018
24.6225389
24.6745142
25.0000000
25.0000000
5.0000000
5.0000000
5.0000000
5.0000000
5.0000000
5.0000000
5.0000000
5.0000000
5.0000000
5.0000000
5.0000000
5.0038799
5.0334723
5.1198033
5.3123281
5.6642877
6.2349917
7.0789744
8.2336481
9.7285872
11.5171579
13.4850542
15.4837514
17.3343873
18.8993388
20.2121362
21.3048718
22.1727163
22.8950013
23.4831212
23.9422940
24.2914894
24.5491914
24.7338385
24.8566793
24.9314310
24.9738426
24.9921341
24.9978484
25.0000000
25.0000000
25.0000000
25.0000000
25.0000000
25.0000000
25.0000000
25.0000000
25.0000000
25.0000000
25.0000000
25.0000000
25.0000000
21.2636716
20.2313313
18.9819969
18.4951137
19.8747247
21.5786998
23.2996356
23.7379278
22.9399533
22.3801996
22.1026372
20.7751313
22.5060362
5.3936408
10.4359720
5.8584632
6.4289313
7.4951064
8.7846308
12.4688000
15.0250613
23.3029784
24.1572413
24.4588730
24.6990904
24.8200534
24.9209077
23.7832042
24.9711024
24.3787766
24.0681578
24.6586349
24.8247489
24.8801353
24.7590522
24.5278597
24.1498282
24.3370459
6.2593792
7.9245315
7.2270769
5.5869822
5.8657904
5.1691053
9.8779841
15.2093265
16.0135238
19.8088510
17.2634915
23.1322630
22.9700729
22.6228147
16.7504508
7.6403263
11.0011772
13.4550348
24.4178152
24.9905387
24.6327821
24.0705308
23.7515929
9.0833898
23.8500889
23.6921142
24.2191205
9.3154322
11.5258598
14.3639529
14.5372288
18.3289444
23.2997774
6.7493932
17.4664398
21.7439832
24.9964261
23.5041825
20.9587793
21.0983408
21.4894042
20.2280272
22.6082109
21.6866023
