# vtk DataFile Version 1.0
3D triangulation data
ASCII

DATASET POLYDATA
POINTS 18 float
21.0039825 1.79409027 0
24. 6. 0.00
21.0039825 5.7752986 0
17.9992447 5.54994345 0
15. 5.32499981 0.00
12. 5.0999999 0.00
9.0031414 4.87523556 0
5.99669981 4.64975262 0
3. 4.42500019 0
0. 4.19999981 0
3. 0.256249994 0
0. 0. 0
17.9992447 1.53743553 0
15. 1.28125 0
12. 1.02499998 0
9.0031414 0.769018352 0
5.99669981 0.512218118 0
24. 2.04999995 0.00
LINES 33 99
2  0  1
2  1  2
2  2  3
2  3  4
2  4  5
2  5  6
2  6  7
2  7  8
2  8  9
2  9  10
2  11  10
2  9  11
2  2  0
2  12  2
2  3  12
2  13  3
2  4  13
2  14  4
2  6  14
2  15  6
2  7  15
2  16  7
2  8  16
2  10  8
2  17  1
2  14  5
2  14  13
2  13  12
2  12  0
2  0  17
2  10  16
2  15  14
2  16  15
POINT_DATA 18
VECTORS Displacements float
8.8117953e-04 -4.7682049e-03 0
-2.5445442e-03 -8.8877522e-04 0
-1.8038341e-03 -5.4594800e-03 0
-8.4634963e-04 -9.1645699e-03 0
1.7518589e-04 -1.1566590e-02 0
1.1396026e-03 -1.2547650e-02 0
1.9452570e-03 -1.1424316e-02 0
2.5912926e-03 -8.9626769e-03 0
2.9766199e-03 -5.3400639e-03 0
3.0279767e-03 -9.4497309e-04 0
-8.1173996e-05 -4.6050912e-03 0
0 0 0
1.2898736e-03 -8.6723557e-03 0
1.3065368e-03 -1.1275000e-02 0
1.0286700e-03 -1.2343900e-02 0
5.6677120e-04 -1.1104657e-02 0
1.5357730e-04 -8.4361406e-03 0
0 0 0
CELL_DATA 33
SCALARS Forces float 1
LOOKUP_TABLE default
4.549257318313653e+03
-2.618070226480238e+03
-4.482830555376331e+03
-5.572642418020288e+03
-5.904536038036439e+03
-5.904388438798285e+03
-5.488435745670773e+03
-4.346016253295685e+03
-2.504277593437193e+03
4.169189224150322e+03
-3.119259555209774e+03
-3.494608799236634e+03
-3.468258638519087e+03
3.208357528753492e+03
-2.450659790897168e+03
1.878248323333483e+03
-1.441439293185025e+03
0.569360505593135e+03
0.667593385595473e+03
-1.555764579557653e+03
1.850896205238130e+03
-2.541590821016972e+03
3.016164625406501e+03
-3.520597366269838e+03
-4.496088974123858e+03
-0.999986990386900e+03
2.444434869169045e+03
1.368664983932911e+03
-0.480301842081926e+03
-3.115107805138732e+03
-0.596268439636925e+03
2.360791750430881e+03
1.231609331625811e+03



